# vtk DataFile Version 2.0
decoded ascii
ASCII
DATASET POLYDATA
POINTS 6 float
0.203811 -0.136157 19.446350
-0.238164 -0.509491 19.786610
0.463436 -0.153910 20.294041
-0.386472 -0.130687 20.476870
-0.343562 0.377369 19.770229
0.333004 0.482539 20.095760
POLYGONS 8 32
3 4 5 0
3 4 0 1
3 2 0 5
3 4 1 3
3 2 1 0
3 5 4 3
3 3 1 2
3 2 5 3
POINT_DATA 6
SCALARS hyd float
LOOKUP_TABLE default
0.000000
0.000000
0.000000
0.000000
0.000000
0.000000
SCALARS state int
LOOKUP_TABLE default
-1
-1
-1
-1
-1
-1
VECTORS frc float
0.000000 0.000000 0.000000
0.000000 0.000000 0.000000
0.000000 0.000000 0.000000
0.000000 0.000000 0.000000
0.000000 0.000000 0.000000
0.000000 0.000000 0.000000
