# vtk DataFile Version 2.0
pos: nm, frc: pN, trq: pN*nm
ASCII
DATASET POLYDATA
POINTS 1 float
0.455900 -1.450881 -20.559993
VERTICES 1 2
1 0
POINT_DATA 1
SCALARS state int
LOOKUP_TABLE default
118
VECTORS frc float
0.000000 0.000000 0.000000
VECTORS trq float
0.000000 0.000000 0.000000
