# vtk DataFile Version 2.0
-0.794535 -11.749398 -9.933930
ASCII
DATASET POLYDATA
POINTS 67 float
-1.037015 -13.718312 -9.442094
0.594486 -10.352162 -9.390167
-1.864065 -11.800008 -8.216961
-1.124686 -10.452196 -8.414198
-0.542799 -10.778934 -8.179141
-2.297906 -10.511744 -9.299702
-2.067285 -12.566198 -8.557619
-0.788139 -12.551766 -8.065076
-1.045932 -13.180672 -8.459838
-0.499648 -11.466677 -7.941698
-1.374316 -9.797798 -10.071185
-2.587190 -12.582712 -9.506825
-2.685323 -10.983957 -10.186837
-1.898374 -10.026973 -9.685025
0.060603 -12.214400 -8.149142
-0.023703 -9.986324 -9.288206
-0.209949 -10.313090 -8.594336
-2.432067 -12.951201 -10.106762
-2.287943 -10.729048 -10.895806
-0.537711 -9.726557 -10.140715
-1.926572 -13.445358 -9.973047
-1.564075 -10.110235 -10.895268
-1.876197 -10.913495 -11.452779
0.515996 -10.224746 -10.268738
-2.489965 -12.012283 -11.106740
-1.967077 -13.206050 -10.810050
-0.204303 -9.961356 -10.709189
0.895745 -11.751151 -8.777169
-0.345002 -13.726055 -10.015775
-0.912499 -10.051785 -11.060441
0.696772 -12.997530 -9.399492
-0.995559 -10.532965 -11.556770
-1.120226 -13.714301 -10.308238
1.162809 -12.238257 -9.655537
-1.100306 -11.301171 -11.905276
-0.938436 -13.417902 -11.085427
0.136330 -10.528986 -11.302430
-1.592060 -11.782244 -11.821985
-0.882188 -12.787080 -11.679158
-0.186763 -11.114656 -11.764704
-0.325668 -13.550229 -10.715630
0.309769 -13.484289 -9.997790
0.008564 -13.066169 -11.298596
0.868626 -12.879206 -10.311352
1.083105 -11.886396 -10.811967
-0.682035 -12.139273 -11.920663
0.523176 -11.237530 -11.390453
0.605359 -12.144721 -11.380442
-2.361627 -11.221769 -8.754044
0.799944 -10.865688 -8.968922
0.997348 -10.789947 -9.923580
-1.786437 -10.489459 -8.675411
-2.583224 -11.992529 -8.989377
-1.258415 -12.057286 -7.961904
-2.730583 -11.273669 -9.544779
-1.802514 -13.296260 -9.029797
-2.779743 -12.222983 -10.354300
0.275636 -11.211728 -8.263835
0.040861 -13.165899 -8.663992
0.624113 -12.630918 -8.778601
-0.432238 -13.597089 -9.166582
-1.741397 -12.619227 -11.529796
0.921399 -10.893301 -10.611463
1.219604 -11.505057 -9.726910
-0.099632 -12.125057 -11.852034
-1.518021 -11.175221 -8.098616
-1.032976 -9.834346 -9.221395
VERTICES 67 134
1 0
1 1
1 2
1 3
1 4
1 5
1 6
1 7
1 8
1 9
1 10
1 11
1 12
1 13
1 14
1 15
1 16
1 17
1 18
1 19
1 20
1 21
1 22
1 23
1 24
1 25
1 26
1 27
1 28
1 29
1 30
1 31
1 32
1 33
1 34
1 35
1 36
1 37
1 38
1 39
1 40
1 41
1 42
1 43
1 44
1 45
1 46
1 47
1 48
1 49
1 50
1 51
1 52
1 53
1 54
1 55
1 56
1 57
1 58
1 59
1 60
1 61
1 62
1 63
1 64
1 65
1 66
POLYGONS 130 520
3 53 2 6
3 51 66 13
3 4 16 3
3 66 3 16
3 4 9 57
3 11 55 6
3 17 55 11
3 21 18 13
3 14 27 57
3 12 18 24
3 29 10 19
3 15 23 19
3 15 1 23
3 32 0 20
3 19 26 29
3 20 25 32
3 30 59 58
3 28 60 0
3 49 50 1
3 23 1 50
3 24 22 37
3 32 28 0
3 60 28 41
3 26 36 29
3 23 50 62
3 40 28 32
3 38 37 45
3 62 46 36
3 42 38 64
3 64 46 47
3 44 43 47
3 2 48 52
3 65 48 2
3 48 65 51
3 6 2 52
3 3 51 65
3 54 48 5
3 65 4 3
3 66 51 3
3 65 53 9
3 52 48 54
3 5 51 13
3 53 6 8
3 6 52 11
3 5 12 54
3 14 9 7
3 55 8 6
3 8 7 53
3 12 5 13
3 56 11 52
3 10 13 66
3 9 14 57
3 52 54 56
3 58 7 8
3 66 16 15
3 56 54 12
3 18 12 13
3 14 7 58
3 15 19 66
3 66 19 10
3 12 24 56
3 15 16 1
3 49 1 16
3 20 55 17
3 29 21 10
3 58 8 60
3 58 59 14
3 0 55 20
3 27 14 59
3 8 55 0
3 0 60 8
3 22 18 21
3 17 56 25
3 20 17 25
3 24 18 22
3 19 23 26
3 25 56 24
3 22 21 31
3 27 59 33
3 49 27 63
3 21 29 31
3 41 30 58
3 33 59 30
3 37 22 34
3 27 33 63
3 22 31 34
3 61 24 37
3 31 29 36
3 25 35 32
3 33 30 43
3 26 23 36
3 35 25 61
3 30 41 43
3 36 23 62
3 63 62 50
3 61 38 35
3 32 35 40
3 41 28 40
3 36 39 31
3 38 61 37
3 62 63 44
3 33 44 63
3 40 35 42
3 41 40 42
3 33 43 44
3 34 45 37
3 39 64 34
3 36 46 39
3 46 62 44
3 45 34 64
3 35 38 42
3 42 43 41
3 38 45 64
3 64 39 46
3 44 47 46
3 47 43 42
3 47 42 64
3 63 50 49
3 48 51 5
3 2 53 65
3 9 4 65
3 9 53 7
3 4 57 16
3 17 11 56
3 21 13 10
3 49 16 57
3 27 49 57
3 58 60 41
3 25 24 61
3 34 31 39
POINT_DATA 67
SCALARS hyd float
LOOKUP_TABLE default
1.000000
1.000000
1.000000
1.000000
1.000000
1.000000
1.000000
1.000000
1.000000
1.000000
1.000000
1.000000
1.000000
1.000000
1.000000
1.000000
1.000000
1.000000
1.000000
1.000000
1.000000
1.000000
1.000000
1.000000
1.000000
1.000000
1.000000
1.000000
1.000000
1.000000
1.000000
1.000000
1.000000
1.000000
0.000000
0.000000
0.000000
0.000000
0.000000
0.000000
0.000000
0.000000
0.000000
0.000000
0.000000
0.000000
0.000000
0.000000
1.000000
1.000000
1.000000
1.000000
1.000000
1.000000
1.000000
1.000000
1.000000
1.000000
1.000000
1.000000
1.000000
0.000000
0.000000
1.000000
0.000000
1.000000
1.000000
