# vtk DataFile Version 2.0
pos: nm, frc: pN, trq: pN*nm
ASCII
DATASET POLYDATA
POINTS 1 float
-1.967662 -8.201130 71.408976
VERTICES 1 2
1 0
POINT_DATA 1
SCALARS state int
LOOKUP_TABLE default
0
VECTORS frc float
8.865239 -1.866772 85.382540
VECTORS trq float
-102.038036 -55.104905 0.056742
