# vtk DataFile Version 2.0
pos: nm, frc: pN, trq: pN*nm
ASCII
DATASET POLYDATA
POINTS 1 float
-3.209745 -25.059540 73.189081
VERTICES 1 2
1 0
POINT_DATA 1
SCALARS state int
LOOKUP_TABLE default
0
VECTORS frc float
0.000000 -4.114000 0.000000
VECTORS trq float
6.368930 0.000000 -2.824341
