# vtk DataFile Version 2.0
pos: nm, frc: pN, trq: pN*nm
ASCII
DATASET POLYDATA
POINTS 1 float
-7.250123 -34.544735 73.042461
VERTICES 1 2
1 0
POINT_DATA 1
SCALARS state int
LOOKUP_TABLE default
0
VECTORS frc float
0.000000 -4.114000 0.000000
VECTORS trq float
6.855908 0.000000 -3.002248
