# vtk DataFile Version 2.0
decoded ascii
ASCII
DATASET POLYDATA
POINTS 67 float
-13.962379 2.682062 23.294182
-14.525611 2.063293 19.647903
-12.230216 2.089363 21.708881
-12.630291 1.994262 20.214531
-13.095896 1.498115 20.408575
-12.054038 3.318775 20.493282
-12.397912 2.442671 22.477936
-13.257495 1.413715 22.192644
-13.370892 1.847758 22.838062
-13.187046 1.230357 21.080311
-13.029016 3.610641 19.532995
-12.398311 3.522227 22.556189
-12.247636 4.256813 20.985920
-12.457659 3.500312 19.904016
-13.939963 1.112138 21.659225
-13.863452 2.280630 19.446159
-13.460998 1.735998 19.851530
-12.896868 3.960029 22.838221
-12.854406 4.712709 20.599247
-13.758008 3.287204 19.261375
-13.384297 3.579726 23.206158
-13.323831 4.409895 19.827976
-13.508001 5.003413 20.644852
-14.835472 2.883208 19.486631
-13.086588 4.922348 21.877584
-13.680550 4.351414 22.930084
-14.362135 3.621705 19.373606
-14.832905 1.304527 20.972115
-14.820600 2.867008 23.101046
-13.942352 4.256268 19.606440
-15.249589 1.878337 22.187620
-14.216601 4.706995 20.060759
-14.291950 3.486393 23.254459
-15.584400 1.929832 21.324780
-14.472434 5.021362 20.807949
-14.736487 4.105055 22.874241
-15.063469 3.956410 19.805197
-14.129260 5.149806 21.396103
-14.908919 4.638349 22.211306
-15.142114 4.482843 20.419834
-15.119502 3.486189 22.881140
-15.313117 2.560127 22.712780
-15.559204 3.872696 22.295351
-15.790648 2.610824 21.973753
-15.968381 3.008224 20.928394
-15.036786 4.794425 21.520414
-15.603710 3.815401 20.394846
-15.886056 3.718408 21.255499
-11.916449 2.827078 21.231688
-14.628387 1.567264 20.124098
-15.221266 2.323354 19.942717
-12.195686 2.530595 20.390600
-12.020731 3.095595 22.016279
-12.690221 1.568324 21.831242
-11.980632 3.694488 21.318665
-13.017230 2.696700 23.092720
-12.540902 4.380463 22.198706
-13.936906 1.168771 20.628922
-14.389253 1.523910 22.553314
-14.812124 1.383590 21.889227
-14.321672 2.164192 23.051126
-14.066477 4.914905 22.261606
-15.500061 2.960865 20.016790
-15.490671 2.006884 20.595959
-15.498478 4.463890 21.373129
-12.321242 1.858359 21.028835
-12.935038 2.699007 19.542089
POLYGONS 130 520
3 53 2 6
3 51 66 13
3 4 16 3
3 66 3 16
3 4 9 57
3 11 55 6
3 17 55 11
3 21 18 13
3 14 27 57
3 12 18 24
3 29 10 19
3 15 23 19
3 15 1 23
3 32 0 20
3 19 26 29
3 20 25 32
3 30 59 58
3 28 60 0
3 49 50 1
3 23 1 50
3 24 22 37
3 32 28 0
3 60 28 41
3 26 36 29
3 23 50 62
3 40 28 32
3 38 37 45
3 62 46 36
3 42 38 64
3 64 46 47
3 44 43 47
3 2 48 52
3 65 48 2
3 48 65 51
3 6 2 52
3 3 51 65
3 54 48 5
3 65 4 3
3 66 51 3
3 65 53 9
3 52 48 54
3 5 51 13
3 53 6 8
3 6 52 11
3 5 12 54
3 14 9 7
3 55 8 6
3 8 7 53
3 12 5 13
3 56 11 52
3 10 13 66
3 9 14 57
3 52 54 56
3 58 7 8
3 66 16 15
3 56 54 12
3 18 12 13
3 14 7 58
3 15 19 66
3 66 19 10
3 12 24 56
3 15 16 1
3 49 1 16
3 20 55 17
3 29 21 10
3 58 8 60
3 58 59 14
3 0 55 20
3 27 14 59
3 8 55 0
3 0 60 8
3 22 18 21
3 17 56 25
3 20 17 25
3 24 18 22
3 19 23 26
3 25 56 24
3 22 21 31
3 27 59 33
3 49 27 63
3 21 29 31
3 41 30 58
3 33 59 30
3 37 22 34
3 27 33 63
3 22 31 34
3 61 24 37
3 31 29 36
3 25 35 32
3 33 30 43
3 26 23 36
3 35 25 61
3 30 41 43
3 36 23 62
3 63 62 50
3 61 38 35
3 32 35 40
3 41 28 40
3 36 39 31
3 38 61 37
3 62 63 44
3 33 44 63
3 40 35 42
3 41 40 42
3 33 43 44
3 34 45 37
3 39 64 34
3 36 46 39
3 46 62 44
3 45 34 64
3 35 38 42
3 42 43 41
3 38 45 64
3 64 39 46
3 44 47 46
3 47 43 42
3 47 42 64
3 63 50 49
3 48 51 5
3 2 53 65
3 9 4 65
3 9 53 7
3 4 57 16
3 17 11 56
3 21 13 10
3 49 16 57
3 27 49 57
3 58 60 41
3 25 24 61
3 34 31 39
POINT_DATA 67
SCALARS hyd float
LOOKUP_TABLE default
1.000000
1.000000
1.000000
1.000000
1.000000
1.000000
1.000000
1.000000
1.000000
1.000000
1.000000
1.000000
1.000000
1.000000
1.000000
1.000000
1.000000
1.000000
1.000000
1.000000
1.000000
1.000000
1.000000
1.000000
1.000000
1.000000
1.000000
1.000000
1.000000
1.000000
1.000000
1.000000
1.000000
1.000000
0.000000
0.000000
0.000000
0.000000
0.000000
0.000000
0.000000
0.000000
0.000000
0.000000
0.000000
0.000000
0.000000
0.000000
1.000000
1.000000
1.000000
1.000000
1.000000
1.000000
1.000000
1.000000
1.000000
1.000000
1.000000
1.000000
1.000000
0.000000
0.000000
1.000000
0.000000
1.000000
1.000000
SCALARS state int
LOOKUP_TABLE default
-1
-1
-1
-1
-1
-1
-1
-1
-1
-1
-1
-1
-1
-1
-1
-1
2916
-1
-1
-1
-1
-1
-1
-1
-1
-1
-1
-1
-1
-1
-1
-1
-1
-1
-1
-1
-1
-1
-1
-1
-1
-1
-1
-1
-1
-1
-1
-1
-1
-1
-1
-1
-1
-1
-1
-1
-1
-1
-1
-1
-1
-1
-1
-1
-1
-1
-1
VECTORS frc float
0.000000 0.000000 0.000000
0.000000 0.000000 0.000000
0.000000 0.000000 0.000000
0.000000 0.000000 0.000000
0.000000 0.000000 0.000000
0.000000 0.000000 0.000000
0.000000 0.000000 0.000000
0.000000 0.000000 0.000000
0.000000 0.000000 0.000000
0.000000 0.000000 0.000000
0.000000 0.000000 0.000000
0.000000 0.000000 0.000000
0.000000 0.000000 0.000000
0.000000 0.000000 0.000000
0.000000 0.000000 0.000000
0.000000 0.000000 0.000000
7.292906 -6.177995 2.940391
0.000000 0.000000 0.000000
0.000000 0.000000 0.000000
0.000000 0.000000 0.000000
0.000000 0.000000 0.000000
0.000000 0.000000 0.000000
0.000000 0.000000 0.000000
0.000000 0.000000 0.000000
0.000000 0.000000 0.000000
0.000000 0.000000 0.000000
0.000000 0.000000 0.000000
0.000000 0.000000 0.000000
0.000000 0.000000 0.000000
0.000000 0.000000 0.000000
0.000000 0.000000 0.000000
0.000000 0.000000 0.000000
0.000000 0.000000 0.000000
0.000000 0.000000 0.000000
0.000000 0.000000 0.000000
0.000000 0.000000 0.000000
0.000000 0.000000 0.000000
0.000000 0.000000 0.000000
0.000000 0.000000 0.000000
0.000000 0.000000 0.000000
0.000000 0.000000 0.000000
0.000000 0.000000 0.000000
0.000000 0.000000 0.000000
0.000000 0.000000 0.000000
0.000000 0.000000 0.000000
0.000000 0.000000 0.000000
0.000000 0.000000 0.000000
0.000000 0.000000 0.000000
0.000000 0.000000 0.000000
0.000000 0.000000 0.000000
0.000000 0.000000 0.000000
0.000000 0.000000 0.000000
0.000000 0.000000 0.000000
0.000000 0.000000 0.000000
0.000000 0.000000 0.000000
0.000000 0.000000 0.000000
0.000000 0.000000 0.000000
0.000000 0.000000 0.000000
0.000000 0.000000 0.000000
0.000000 0.000000 0.000000
0.000000 0.000000 0.000000
0.000000 0.000000 0.000000
0.000000 0.000000 0.000000
0.000000 0.000000 0.000000
0.000000 0.000000 0.000000
0.000000 0.000000 0.000000
0.000000 0.000000 0.000000
